Title: * pixel sensor testbench
Date: Mon Nov 15 12:43:39  2021
Plotname: Transient Analysis
Flags: real
No. Variables: 2
No. Points: 12083
Variables:
	0	time	time
	1	v(xdut.xm1.xm1.vg)	voltage
Values:
 0	0.000000000000000e+00
	1.391101208675266e-03

 1	5.000000000000000e-11
	1.391101208675265e-03

 2	1.000000000000000e-10
	1.391101208675264e-03

 3	2.000000000000000e-10
	1.391101208675261e-03

 4	4.000000000000000e-10
	1.391101208675277e-03

 5	8.000000000000000e-10
	1.391101208675318e-03

 6	1.600000000000000e-09
	1.391101208675320e-03

 7	3.200000000000000e-09
	1.391101208675345e-03

 8	6.400000000000000e-09
	1.391101208675538e-03

 9	1.140000000000000e-08
	1.391101208675979e-03

 10	1.640000000000000e-08
	1.391101208676478e-03

 11	2.140000000000000e-08
	1.391101208676973e-03

 12	2.640000000000000e-08
	1.391101208677468e-03

 13	3.140000000000000e-08
	1.391101208677959e-03

 14	3.640000000000000e-08
	1.391101208678448e-03

 15	4.139999999999999e-08
	1.391101208678934e-03

 16	4.639999999999999e-08
	1.391101208679420e-03

 17	5.139999999999999e-08
	1.391101208679905e-03

 18	5.639999999999999e-08
	1.391101208680385e-03

 19	6.139999999999999e-08
	1.391101208680864e-03

 20	6.640000000000000e-08
	1.391101208681338e-03

 21	7.140000000000000e-08
	1.391101208681805e-03

 22	7.640000000000001e-08
	1.391101208682269e-03

 23	8.140000000000001e-08
	1.391101208682733e-03

 24	8.640000000000002e-08
	1.391101208683193e-03

 25	9.140000000000002e-08
	1.391101208683652e-03

 26	9.640000000000003e-08
	1.391101208684109e-03

 27	1.000000000000000e-07
	1.391101208684189e-03

 28	1.001531814666667e-07
	1.690221468795639e-03

 29	1.004595444000002e-07
	1.693811002272443e-03

 30	1.010722702666672e-07
	1.694093749968973e-03

 31	1.019225649500630e-07
	1.699847446876398e-03

 32	1.036231543168547e-07
	1.704636012598579e-03

 33	1.070243330504381e-07
	1.720902108463035e-03

 34	1.100000000000000e-07
	1.730958622110851e-03

 35	1.100456774452039e-07
	1.732393618471433e-03

 36	1.101370323356116e-07
	1.732828538014292e-03

 37	1.103197421164270e-07
	1.733524107608572e-03

 38	1.106851616780578e-07
	1.735091019629947e-03

 39	1.114160008013194e-07
	1.738058884141186e-03

 40	1.128776790478428e-07
	1.744128731172374e-03

 41	1.158010355408893e-07
	1.756103420633641e-03

 42	1.208010355408893e-07
	1.776728566518352e-03

 43	1.258010355408893e-07
	1.797240300107314e-03

 44	1.308010355408894e-07
	1.817856209220071e-03

 45	1.358010355408894e-07
	1.838358892817608e-03

 46	1.408010355408894e-07
	1.858965539162123e-03

 47	1.458010355408894e-07
	1.879459156695439e-03

 48	1.508010355408894e-07
	1.900056531989907e-03

 49	1.558010355408894e-07
	1.920541080070019e-03

 50	1.608010355408894e-07
	1.941129185090562e-03

 51	1.658010355408894e-07
	1.961604666803315e-03

 52	1.708010355408894e-07
	1.982183506934754e-03

 53	1.758010355408894e-07
	2.002649928645855e-03

 54	1.808010355408894e-07
	2.023219511590406e-03

 55	1.858010355408894e-07
	2.043676881290682e-03

 56	1.908010355408894e-07
	2.064237215877759e-03

 57	1.958010355408894e-07
	2.084685542330564e-03

 58	2.008010355408894e-07
	2.105236637897786e-03

 59	2.058010355408894e-07
	2.125675930187055e-03

 60	2.108010355408894e-07
	2.146217796258257e-03

 61	2.158010355408894e-07
	2.166648063554623e-03

 62	2.208010355408894e-07
	2.187180709669624e-03

 63	2.258010355408895e-07
	2.207601961112206e-03

 64	2.308010355408895e-07
	2.228125396738343e-03

 65	2.358010355408895e-07
	2.248537641369806e-03

 66	2.408010355408894e-07
	2.269051875866343e-03

 67	2.458010355408894e-07
	2.289455122605972e-03

 68	2.508010355408895e-07
	2.309960165195075e-03

 69	2.558010355408895e-07
	2.330354422825046e-03

 70	2.608010355408895e-07
	2.350850282592575e-03

 71	2.658010355408895e-07
	2.371235559758017e-03

 72	2.708010355408895e-07
	2.391722245655274e-03

 73	2.758010355408895e-07
	2.412098550873783e-03

 74	2.808010355408895e-07
	2.432576071720287e-03

 75	2.858010355408895e-07
	2.452943413376484e-03

 76	2.908010355408895e-07
	2.473411777874032e-03

 77	2.958010355408895e-07
	2.493770164245493e-03

 78	3.008010355408895e-07
	2.514229380983343e-03

 79	3.058010355408895e-07
	2.534578820238577e-03

 80	3.108010355408895e-07
	2.555028897704476e-03

 81	3.158010355408895e-07
	2.575369397915608e-03

 82	3.208010355408895e-07
	2.595810344507896e-03

 83	3.258010355408895e-07
	2.616141913662929e-03

 84	3.308010355408895e-07
	2.636573737692028e-03

 85	3.358010355408895e-07
	2.656896383697019e-03

 86	3.408010355408895e-07
	2.677319093404837e-03

 87	3.458010355408895e-07
	2.697632824101321e-03

 88	3.508010355408896e-07
	2.718046427659641e-03

 89	3.558010355408896e-07
	2.738351250823234e-03

 90	3.608010355408896e-07
	2.758755756344676e-03

 91	3.658010355408896e-07
	2.779051679697388e-03

 92	3.708010355408896e-07
	2.799447095243067e-03

 93	3.758010355408896e-07
	2.819734126456797e-03

 94	3.808010355408896e-07
	2.840120460040193e-03

 95	3.858010355408896e-07
	2.860398606742537e-03

 96	3.908010355408896e-07
	2.880775866332748e-03

 97	3.958010355408896e-07
	2.901045136112421e-03

 98	4.008010355408896e-07
	2.921413329644186e-03

 99	4.058010355408896e-07
	2.941673730056474e-03

 100	4.108010355408896e-07
	2.962032865429522e-03

 101	4.158010355408896e-07
	2.982284403996630e-03

 102	4.208010355408896e-07
	3.002634489078007e-03

 103	4.258010355408896e-07
	3.022877173292070e-03

 104	4.308010355408896e-07
	3.043218215920845e-03

 105	4.358010355408896e-07
	3.063452053249707e-03

 106	4.408010355408896e-07
	3.083790001683734e-03

 107	4.458010355408896e-07
	3.104020921383755e-03

 108	4.508010355408897e-07
	3.124349828292204e-03

 109	4.558010355408897e-07
	3.144571901525077e-03

 110	4.608010355408897e-07
	3.164891774933009e-03

 111	4.658010355408897e-07
	3.185105009293835e-03

 112	4.708010355408897e-07
	3.205415857092980e-03

 113	4.758010355408897e-07
	3.225620260079390e-03

 114	4.808010355408897e-07
	3.245922090092870e-03

 115	4.858010355408896e-07
	3.266117669143182e-03

 116	4.908010355408896e-07
	3.286410489148309e-03

 117	4.958010355408895e-07
	3.306597251668050e-03

 118	5.008010355408895e-07
	3.326881069412328e-03

 119	5.058010355408894e-07
	3.347059022784580e-03

 120	5.108010355408894e-07
	3.367333845999744e-03

 121	5.158010355408893e-07
	3.387502997594884e-03

 122	5.208010355408893e-07
	3.407768833992825e-03

 123	5.258010355408893e-07
	3.427929191156450e-03

 124	5.308010355408892e-07
	3.448186048433929e-03

 125	5.358010355408892e-07
	3.468337618504984e-03

 126	5.408010355408891e-07
	3.488585504347388e-03

 127	5.458010355408891e-07
	3.508728294653346e-03

 128	5.508010355408890e-07
	3.528967216732513e-03

 129	5.558010355408890e-07
	3.549101234588180e-03

 130	5.608010355408889e-07
	3.569331200569169e-03

 131	5.658010355408889e-07
	3.589456453282685e-03

 132	5.708010355408888e-07
	3.609677470818429e-03

 133	5.758010355408888e-07
	3.629793965684269e-03

 134	5.808010355408887e-07
	3.650006042414830e-03

 135	5.858010355408887e-07
	3.670113786720424e-03

 136	5.908010355408886e-07
	3.690316930280164e-03

 137	5.958010355408886e-07
	3.710415931305809e-03

 138	6.008010355408885e-07
	3.730610149313716e-03

 139	6.058010355408885e-07
	3.750700414323323e-03

 140	6.108010355408884e-07
	3.770885714395961e-03

 141	6.158010355408884e-07
	3.790967250657977e-03

 142	6.208010355408883e-07
	3.811143640401197e-03

 143	6.258010355408883e-07
	3.831216455164443e-03

 144	6.308010355408882e-07
	3.851383942171800e-03

 145	6.358010355408882e-07
	3.871448042680244e-03

 146	6.408010355408882e-07
	3.891606634539202e-03

 147	6.458010355408881e-07
	3.911662028032892e-03

 148	6.508010355408881e-07
	3.931811732325499e-03

 149	6.558010355408880e-07
	3.951858426036719e-03

 150	6.608010355408880e-07
	3.971999250333408e-03

 151	6.658010355408879e-07
	3.992037251477934e-03

 152	6.708010355408879e-07
	4.012169203338438e-03

 153	6.758010355408878e-07
	4.032198519132790e-03

 154	6.808010355408878e-07
	4.052321606111207e-03

 155	6.858010355408877e-07
	4.072342243761164e-03

 156	6.908010355408877e-07
	4.092456473404240e-03

 157	6.958010355408876e-07
	4.112468440109571e-03

 158	7.008010355408876e-07
	4.132573819955877e-03

 159	7.058010355408875e-07
	4.152577122908326e-03

 160	7.100000000000001e-07
	4.169463225534182e-03

 161	7.105000000000001e-07
	4.171446832585519e-03

 162	7.115000000000001e-07
	4.175455137504026e-03

 163	7.135000000000001e-07
	4.183470218739411e-03

 164	7.175000000000001e-07
	4.199497939479250e-03

 165	7.200000000000001e-07
	4.209514041634842e-03

 166	7.205000000000001e-07
	4.211517025915576e-03

 167	7.215000000000001e-07
	4.215523026126693e-03

 168	7.235000000000001e-07
	4.223534504186806e-03

 169	7.275000000000001e-07
	4.239555366813562e-03

 170	7.325000000000001e-07
	4.259577523262311e-03

 171	7.375000000000000e-07
	4.279595322398590e-03

 172	7.425000000000000e-07
	4.299608767210282e-03

 173	7.474999999999999e-07
	4.319617858321865e-03

 174	7.524999999999999e-07
	4.339622598726305e-03

 175	7.574999999999998e-07
	4.359622989056787e-03

 176	7.624999999999998e-07
	4.379619032310249e-03

 177	7.674999999999997e-07
	4.399610729122171e-03

 178	7.724999999999997e-07
	4.419598082483240e-03

 179	7.774999999999996e-07
	4.439581093035228e-03

 180	7.824999999999996e-07
	4.459559763770900e-03

 181	7.874999999999996e-07
	4.479534095327414e-03

 182	7.924999999999995e-07
	4.499504090692780e-03

 183	7.974999999999995e-07
	4.519469750510203e-03

 184	8.000000000000002e-07
	4.529450955755504e-03

 185	8.005000000000002e-07
	4.531447592032369e-03

 186	8.015000000000002e-07
	4.535439170296864e-03

 187	8.035000000000002e-07
	4.543422831625684e-03

 188	8.075000000000002e-07
	4.559388084192616e-03

 189	8.100000000000002e-07
	4.569364955161099e-03

 190	8.105000000000002e-07
	4.571360179846716e-03

 191	8.115000000000002e-07
	4.575350539794154e-03

 192	8.135000000000002e-07
	4.583330740309264e-03

 193	8.175000000000002e-07
	4.599289064361750e-03

 194	8.225000000000002e-07
	4.619233076179284e-03

 195	8.275000000000001e-07
	4.639172763825684e-03

 196	8.325000000000001e-07
	4.659108129079063e-03

 197	8.375000000000000e-07
	4.679039173773742e-03

 198	8.425000000000000e-07
	4.698965899686820e-03

 199	8.474999999999999e-07
	4.718888308651758e-03

 200	8.524999999999999e-07
	4.738806402443872e-03

 201	8.574999999999998e-07
	4.758720182894804e-03

 202	8.624999999999998e-07
	4.778629651780801e-03

 203	8.674999999999997e-07
	4.798534810931679e-03

 204	8.724999999999997e-07
	4.818435662118007e-03

 205	8.774999999999996e-07
	4.838332207167798e-03

 206	8.824999999999996e-07
	4.858224447851256e-03

 207	8.874999999999995e-07
	4.878112385994598e-03

 208	8.924999999999995e-07
	4.897996023367704e-03

 209	8.974999999999995e-07
	4.917875361795009e-03

 210	9.024999999999994e-07
	4.937750403042039e-03

 211	9.074999999999994e-07
	4.957621148934221e-03

 212	9.124999999999993e-07
	4.977487601236758e-03

 213	9.174999999999993e-07
	4.997349761766440e-03

 214	9.224999999999992e-07
	5.017207632288247e-03

 215	9.274999999999992e-07
	5.037061214622771e-03

 216	9.324999999999991e-07
	5.056910510530579e-03

 217	9.374999999999991e-07
	5.076755521829157e-03

 218	9.424999999999990e-07
	5.096596250280274e-03

 219	9.474999999999990e-07
	5.116432697699716e-03

 220	9.524999999999989e-07
	5.136264865844824e-03

 221	9.574999999999989e-07
	5.156092756528279e-03

 222	9.624999999999988e-07
	5.175916371508726e-03

 223	9.674999999999988e-07
	5.195735712595702e-03

 224	9.724999999999987e-07
	5.215550781541970e-03

 225	9.774999999999987e-07
	5.235361580156835e-03

 226	9.824999999999986e-07
	5.255168110194412e-03

 227	9.874999999999986e-07
	5.274970373466724e-03

 228	9.924999999999985e-07
	5.294768371726336e-03

 229	9.974999999999985e-07
	5.314562106774864e-03

 230	1.002499999999998e-06
	5.334351580363388e-03

 231	1.007499999999998e-06
	5.354136794297789e-03

 232	1.012499999999998e-06
	5.373917750326161e-03

 233	1.017499999999998e-06
	5.393694450252784e-03

 234	1.022499999999998e-06
	5.413466895822780e-03

 235	1.027499999999998e-06
	5.433235088835857e-03

 236	1.032499999999998e-06
	5.452999031037148e-03

 237	1.037499999999998e-06
	5.472758724226296e-03

 238	1.042499999999998e-06
	5.492514170146989e-03

 239	1.047499999999998e-06
	5.512265370595772e-03

 240	1.052499999999998e-06
	5.532012327316432e-03

 241	1.057499999999998e-06
	5.551755042102458e-03

 242	1.062499999999998e-06
	5.571493516693139e-03

 243	1.067499999999998e-06
	5.591227752881959e-03

 244	1.072499999999998e-06
	5.610957752408361e-03

 245	1.077499999999998e-06
	5.630683517064319e-03

 246	1.082499999999998e-06
	5.650405048584771e-03

 247	1.087499999999998e-06
	5.670122348760187e-03

 248	1.092499999999998e-06
	5.689835419325679e-03

 249	1.097499999999998e-06
	5.709544262070271e-03

 250	1.102499999999997e-06
	5.729248878726126e-03

 251	1.107499999999997e-06
	5.748949271080818e-03

 252	1.112499999999997e-06
	5.768645440865162e-03

 253	1.117499999999997e-06
	5.788337389862072e-03

 254	1.122499999999997e-06
	5.808025119804261e-03

 255	1.127499999999997e-06
	5.827708632474824e-03

 256	1.132499999999997e-06
	5.847387929601933e-03

 257	1.137499999999997e-06
	5.867063012965663e-03

 258	1.142499999999997e-06
	5.886733884292913e-03

 259	1.147499999999997e-06
	5.906400545362349e-03

 260	1.152499999999997e-06
	5.926062997899592e-03

 261	1.157499999999997e-06
	5.945721243683571e-03

 262	1.162499999999997e-06
	5.965375284436998e-03

 263	1.167499999999997e-06
	5.985025121932497e-03

 264	1.172499999999997e-06
	6.004670757893210e-03

 265	1.177499999999997e-06
	6.024312194093717e-03

 266	1.182499999999997e-06
	6.043949432250947e-03

 267	1.187499999999997e-06
	6.063582474141523e-03

 268	1.192499999999997e-06
	6.083211321486162e-03

 269	1.197499999999997e-06
	6.102835976051776e-03

 270	1.202499999999997e-06
	6.122456439556247e-03

 271	1.207499999999996e-06
	6.142072713768550e-03

 272	1.212499999999996e-06
	6.161684800398589e-03

 273	1.217499999999996e-06
	6.181292701215826e-03

 274	1.222499999999996e-06
	6.200896417935831e-03

 275	1.227499999999996e-06
	6.220495952321645e-03

 276	1.232499999999996e-06
	6.240091306087707e-03

 277	1.237499999999996e-06
	6.259682480997552e-03

 278	1.242499999999996e-06
	6.279269478761076e-03

 279	1.247499999999996e-06
	6.298852301138835e-03

 280	1.252499999999996e-06
	6.318430949837878e-03

 281	1.257499999999996e-06
	6.338005426619343e-03

 282	1.262499999999996e-06
	6.357575733190935e-03

 283	1.267499999999996e-06
	6.377141871310854e-03

 284	1.272499999999996e-06
	6.396703842683996e-03

 285	1.277499999999996e-06
	6.416261649067409e-03

 286	1.282499999999996e-06
	6.435815292163147e-03

 287	1.287499999999996e-06
	6.455364773727130e-03

 288	1.292499999999996e-06
	6.474910095460392e-03

 289	1.297499999999996e-06
	6.494451259115937e-03

 290	1.302499999999996e-06
	6.513988266395603e-03

 291	1.307499999999996e-06
	6.533521119049502e-03

 292	1.312499999999995e-06
	6.553049818776681e-03

 293	1.317499999999995e-06
	6.572574367326137e-03

 294	1.322499999999995e-06
	6.592094766395960e-03

 295	1.327499999999995e-06
	6.611611017732282e-03

 296	1.332499999999995e-06
	6.631123123030418e-03

 297	1.337499999999995e-06
	6.650631084042819e-03

 298	1.342499999999995e-06
	6.670134902462012e-03

 299	1.347499999999995e-06
	6.689634580028332e-03

 300	1.352499999999995e-06
	6.709130118433447e-03

 301	1.357499999999995e-06
	6.728621519420396e-03

 302	1.362499999999995e-06
	6.748108784679933e-03

 303	1.367499999999995e-06
	6.767591915952274e-03

 304	1.372499999999995e-06
	6.787070914927282e-03

 305	1.377499999999995e-06
	6.806545783344228e-03

 306	1.382499999999995e-06
	6.826016522890273e-03

 307	1.387499999999995e-06
	6.845483135305596e-03

 308	1.392499999999995e-06
	6.864945622276542e-03

 309	1.397499999999995e-06
	6.884403985534782e-03

 310	1.402499999999995e-06
	6.903858226765867e-03

 311	1.407499999999995e-06
	6.923308347704380e-03

 312	1.412499999999995e-06
	6.942754350031259e-03

 313	1.417499999999994e-06
	6.962196235482151e-03

 314	1.422499999999994e-06
	6.981634005737205e-03

 315	1.427499999999994e-06
	7.001067662527350e-03

 316	1.432499999999994e-06
	7.020497207531991e-03

 317	1.437499999999994e-06
	7.039922642479282e-03

 318	1.442499999999994e-06
	7.059343969045975e-03

 319	1.447499999999994e-06
	7.078761188957450e-03

 320	1.452499999999994e-06
	7.098174303895657e-03

 321	1.457499999999994e-06
	7.117583315585158e-03

 322	1.462499999999994e-06
	7.136988225697359e-03

 323	1.467499999999994e-06
	7.156389035956056e-03

 324	1.472499999999994e-06
	7.175785748034006e-03

 325	1.477499999999994e-06
	7.195178363656252e-03

 326	1.482499999999994e-06
	7.214566884492885e-03

 327	1.487499999999994e-06
	7.233951312264243e-03

 328	1.492499999999994e-06
	7.253331648641817e-03

 329	1.497499999999994e-06
	7.272707895343197e-03

 330	1.502499999999994e-06
	7.292080054037290e-03

 331	1.507499999999994e-06
	7.311448126439019e-03

 332	1.512499999999994e-06
	7.330812114216714e-03

 333	1.517499999999994e-06
	7.350172019084583e-03

 334	1.522499999999993e-06
	7.369527842708412e-03

 335	1.527499999999993e-06
	7.388879586803817e-03

 336	1.532499999999993e-06
	7.408227253031943e-03

 337	1.537499999999993e-06
	7.427570843105743e-03

 338	1.542499999999993e-06
	7.446910358685866e-03

 339	1.547499999999993e-06
	7.466245801484706e-03

 340	1.552499999999993e-06
	7.485577173160319e-03

 341	1.557499999999993e-06
	7.504904475420389e-03

 342	1.562499999999993e-06
	7.524227709928776e-03

 343	1.567499999999993e-06
	7.543546878392573e-03

 344	1.572499999999993e-06
	7.562861982466861e-03

 345	1.577499999999993e-06
	7.582173023856144e-03

 346	1.582499999999993e-06
	7.601480004217179e-03

 347	1.587499999999993e-06
	7.620782925251855e-03

 348	1.592499999999993e-06
	7.640081788612327e-03

 349	1.597499999999993e-06
	7.659376596004234e-03

 350	1.602499999999993e-06
	7.678667349081477e-03

 351	1.607499999999993e-06
	7.697954049542858e-03

 352	1.612499999999993e-06
	7.717236699037679e-03

 353	1.617499999999993e-06
	7.736515299264335e-03

 354	1.622499999999993e-06
	7.755789851873955e-03

 355	1.627499999999992e-06
	7.775060358564482e-03

 356	1.632499999999992e-06
	7.794326820984590e-03

 357	1.637499999999992e-06
	7.813589240827564e-03

 358	1.642499999999992e-06
	7.832847619741800e-03

 359	1.647499999999992e-06
	7.852101959417995e-03

 360	1.652499999999992e-06
	7.871352261500019e-03

 361	1.657499999999992e-06
	7.890598527684778e-03

 362	1.662499999999992e-06
	7.909840759611486e-03

 363	1.667499999999992e-06
	7.929078958972390e-03

 364	1.672499999999992e-06
	7.948313127408697e-03

 365	1.677499999999992e-06
	7.967543266607964e-03

 366	1.682499999999992e-06
	7.986769378211203e-03

 367	1.687499999999992e-06
	8.005991463905737e-03

 368	1.692499999999992e-06
	8.025209525330233e-03

 369	1.697499999999992e-06
	8.044423564169491e-03

 370	1.702499999999992e-06
	8.063633582059816e-03

 371	1.707499999999992e-06
	8.082839580688084e-03

 372	1.712499999999992e-06
	8.102041561688233e-03

 373	1.717499999999992e-06
	8.121239526740189e-03

 374	1.722499999999992e-06
	8.140433477482350e-03

 375	1.727499999999992e-06
	8.159623415594473e-03

 376	1.732499999999991e-06
	8.178809342703574e-03

 377	1.737499999999991e-06
	8.197991260491562e-03

 378	1.742499999999991e-06
	8.217169170592243e-03

 379	1.747499999999991e-06
	8.236343074680545e-03

 380	1.752499999999991e-06
	8.255512974381148e-03

 381	1.757499999999991e-06
	8.274678871368945e-03

 382	1.762499999999991e-06
	8.293840767280104e-03

 383	1.767499999999991e-06
	8.312998663787092e-03

 384	1.772499999999991e-06
	8.332152562507673e-03

 385	1.777499999999991e-06
	8.351302465118957e-03

 386	1.782499999999991e-06
	8.370448373250400e-03

 387	1.787499999999991e-06
	8.389590288569745e-03

 388	1.792499999999991e-06
	8.408728212699532e-03

 389	1.797499999999991e-06
	8.427862147312244e-03

 390	1.802499999999991e-06
	8.446992094025871e-03

 391	1.807499999999991e-06
	8.466118054508212e-03

 392	1.812499999999991e-06
	8.485240030382108e-03

 393	1.817499999999991e-06
	8.504358023310765e-03

 394	1.822499999999991e-06
	8.523472034912461e-03

 395	1.827499999999991e-06
	8.542582066852834e-03

 396	1.832499999999991e-06
	8.561688120750409e-03

 397	1.837499999999990e-06
	8.580790198266157e-03

 398	1.842499999999990e-06
	8.599888301011683e-03

 399	1.847499999999990e-06
	8.618982430650547e-03

 400	1.852499999999990e-06
	8.638072588796973e-03

 401	1.857499999999990e-06
	8.657158777109895e-03

 402	1.862499999999990e-06
	8.676240997203809e-03

 403	1.867499999999990e-06
	8.695319250737837e-03

 404	1.872499999999990e-06
	8.714393539321966e-03

 405	1.877499999999990e-06
	8.733463864608264e-03

 406	1.882499999999990e-06
	8.752530228209520e-03

 407	1.887499999999990e-06
	8.771592631785367e-03

 408	1.892499999999990e-06
	8.790651076941597e-03

 409	1.897499999999990e-06
	8.809705565325890e-03

 410	1.902499999999990e-06
	8.828756098544503e-03

 411	1.907499999999990e-06
	8.847802678250331e-03

 412	1.912499999999990e-06
	8.866845306047554e-03

 413	1.917499999999990e-06
	8.885883983584492e-03

 414	1.922499999999990e-06
	8.904918712468251e-03

 415	1.927499999999990e-06
	8.923949494347494e-03

 416	1.932499999999990e-06
	8.942976330819872e-03

 417	1.937499999999989e-06
	8.961999223536939e-03

 418	1.942499999999989e-06
	8.981018174101784e-03

 419	1.947499999999989e-06
	9.000033184153903e-03

 420	1.952499999999989e-06
	9.019044255291974e-03

 421	1.957499999999989e-06
	9.038051389160940e-03

 422	1.962499999999989e-06
	9.057054587357512e-03

 423	1.967499999999989e-06
	9.076053851524567e-03

 424	1.972499999999989e-06
	9.095049183256855e-03

 425	1.977499999999989e-06
	9.114040584192760e-03

 426	1.982499999999989e-06
	9.133028055927672e-03

 427	1.987499999999989e-06
	9.152011600102993e-03

 428	1.992499999999989e-06
	9.170991218309653e-03

 429	1.997499999999989e-06
	9.189966912184508e-03

 430	2.002499999999989e-06
	9.208938683321703e-03

 431	2.007499999999989e-06
	9.227906533356161e-03

 432	2.012499999999989e-06
	9.246870463872436e-03

 433	2.017499999999989e-06
	9.265830476503520e-03

 434	2.022499999999989e-06
	9.284786572845035e-03

 435	2.027499999999989e-06
	9.303738754530569e-03

 436	2.032499999999989e-06
	9.322687023140912e-03

 437	2.037499999999989e-06
	9.341631380305157e-03

 438	2.042499999999988e-06
	9.360571827612747e-03

 439	2.047499999999988e-06
	9.379508366693490e-03

 440	2.052499999999988e-06
	9.398440999129764e-03

 441	2.057499999999988e-06
	9.417369726549484e-03

 442	2.062499999999988e-06
	9.436294550533278e-03

 443	2.067499999999988e-06
	9.455215472707189e-03

 444	2.072499999999988e-06
	9.474132494657953e-03

 445	2.077499999999988e-06
	9.493045618012381e-03

 446	2.082499999999988e-06
	9.511954844344870e-03

 447	2.087499999999988e-06
	9.530860175277796e-03

 448	2.092499999999988e-06
	9.549761612389192e-03

 449	2.097499999999988e-06
	9.568659157296953e-03

 450	2.102499999999988e-06
	9.587552811577421e-03

 451	2.107499999999988e-06
	9.606442576854713e-03

 452	2.112499999999988e-06
	9.625328454703446e-03

 453	2.117499999999988e-06
	9.644210446740593e-03

 454	2.122499999999988e-06
	9.663088554541784e-03

 455	2.127499999999988e-06
	9.681962779722287e-03

 456	2.132499999999988e-06
	9.700833123853352e-03

 457	2.137499999999988e-06
	9.719699588553879e-03

 458	2.142499999999988e-06
	9.738562175390838e-03

 459	2.147499999999987e-06
	9.757420885973308e-03

 460	2.152499999999987e-06
	9.776275721874813e-03

 461	2.157499999999987e-06
	9.795126684710866e-03

 462	2.162499999999987e-06
	9.813973776050585e-03

 463	2.167499999999987e-06
	9.832816997502382e-03

 464	2.172499999999987e-06
	9.851656350628374e-03

 465	2.177499999999987e-06
	9.870491837038057e-03

 466	2.182499999999987e-06
	9.889323458297532e-03

 467	2.187499999999987e-06
	9.908151216014641e-03

 468	2.192499999999987e-06
	9.926975111753914e-03

 469	2.197499999999987e-06
	9.945795147121595e-03

 470	2.202499999999987e-06
	9.964611323677916e-03

 471	2.207499999999987e-06
	9.983423643024767e-03

 472	2.212499999999987e-06
	1.000223210672646e-02

 473	2.217499999999987e-06
	1.002103671638606e-02

 474	2.222499999999987e-06
	1.003983747355807e-02

 475	2.227499999999987e-06
	1.005863437984682e-02

 476	2.232499999999987e-06
	1.007742743680815e-02

 477	2.237499999999987e-06
	1.009621664603922e-02

 478	2.242499999999987e-06
	1.011500200909727e-02

 479	2.247499999999987e-06
	1.013378352758364e-02

 480	2.252499999999986e-06
	1.015256120305128e-02

 481	2.257499999999986e-06
	1.017133503709715e-02

 482	2.262499999999986e-06
	1.019010503128132e-02

 483	2.267499999999986e-06
	1.020887118719361e-02

 484	2.272499999999986e-06
	1.022763350638136e-02

 485	2.277499999999986e-06
	1.024639199043869e-02

 486	2.282499999999986e-06
	1.026514664091733e-02

 487	2.287499999999986e-06
	1.028389745940991e-02

 488	2.292499999999986e-06
	1.030264444746395e-02

 489	2.297499999999986e-06
	1.032138760667071e-02

 490	2.302499999999986e-06
	1.034012693857924e-02

 491	2.307499999999986e-06
	1.035886244477365e-02

 492	2.312499999999986e-06
	1.037759412680465e-02

 493	2.317499999999986e-06
	1.039632198626071e-02

 494	2.322499999999986e-06
	1.041504602467973e-02

 495	2.327499999999986e-06
	1.043376624365175e-02

 496	2.332499999999986e-06
	1.045248264471920e-02

 497	2.337499999999986e-06
	1.047119522946790e-02

 498	2.342499999999986e-06
	1.048990399943901e-02

 499	2.347499999999986e-06
	1.050860895621416e-02

 500	2.352499999999986e-06
	1.052731010133335e-02

 501	2.357499999999985e-06
	1.054600743637986e-02

 502	2.362499999999985e-06
	1.056470096289245e-02

 503	2.367499999999985e-06
	1.058339068244437e-02

 504	2.372499999999985e-06
	1.060207659657622e-02

 505	2.377499999999985e-06
	1.062075870686886e-02

 506	2.382499999999985e-06
	1.063943701485875e-02

 507	2.387499999999985e-06
	1.065811152212550e-02

 508	2.392499999999985e-06
	1.067678223019557e-02

 509	2.397499999999985e-06
	1.069544914064444e-02

 510	2.402499999999985e-06
	1.071411225501237e-02

 511	2.407499999999985e-06
	1.073277157487065e-02

 512	2.412499999999985e-06
	1.075142710174653e-02

 513	2.417499999999985e-06
	1.077007883721324e-02

 514	2.422499999999985e-06
	1.078872678279996e-02

 515	2.427499999999985e-06
	1.080737094007877e-02

 516	2.432499999999985e-06
	1.082601131058083e-02

 517	2.437499999999985e-06
	1.084464789587410e-02

 518	2.442499999999985e-06
	1.086328069748574e-02

 519	2.447499999999985e-06
	1.088190971698259e-02

 520	2.452499999999985e-06
	1.090053495588785e-02

 521	2.457499999999985e-06
	1.091915641577037e-02

 522	2.462499999999984e-06
	1.093777409816143e-02

 523	2.467499999999984e-06
	1.095638800461968e-02

 524	2.472499999999984e-06
	1.097499813666945e-02

 525	2.477499999999984e-06
	1.099360449587447e-02

 526	2.482499999999984e-06
	1.101220708375206e-02

 527	2.487499999999984e-06
	1.103080590186500e-02

 528	2.492499999999984e-06
	1.104940095173584e-02

 529	2.497499999999984e-06
	1.106799223492638e-02

 530	2.502499999999984e-06
	1.108657975294904e-02

 531	2.507499999999984e-06
	1.110516350736473e-02

 532	2.512499999999984e-06
	1.112374349969126e-02

 533	2.517499999999984e-06
	1.114231973148555e-02

 534	2.522499999999984e-06
	1.116089220426450e-02

 535	2.527499999999984e-06
	1.117946091958720e-02

 536	2.532499999999984e-06
	1.119802587896980e-02

 537	2.537499999999984e-06
	1.121658708396120e-02

 538	2.542499999999984e-06
	1.123514453607675e-02

 539	2.547499999999984e-06
	1.125369823686764e-02

 540	2.552499999999984e-06
	1.127224818784228e-02

 541	2.557499999999984e-06
	1.129079439055106e-02

 542	2.562499999999984e-06
	1.130933684650796e-02

 543	2.567499999999983e-06
	1.132787555726564e-02

 544	2.572499999999983e-06
	1.134641052433107e-02

 545	2.577499999999983e-06
	1.136494174924988e-02

 546	2.582499999999983e-06
	1.138346923353154e-02

 547	2.587499999999983e-06
	1.140199297872406e-02

 548	2.592499999999983e-06
	1.142051298633626e-02

 549	2.597499999999983e-06
	1.143902925791225e-02

 550	2.602499999999983e-06
	1.145754179495384e-02

 551	2.607499999999983e-06
	1.147605059900446e-02

 552	2.612499999999983e-06
	1.149455567156540e-02

 553	2.617499999999983e-06
	1.151305701418262e-02

 554	2.622499999999983e-06
	1.153155462835996e-02

 555	2.627499999999983e-06
	1.155004851563314e-02

 556	2.632499999999983e-06
	1.156853867749904e-02

 557	2.637499999999983e-06
	1.158702511550564e-02

 558	2.642499999999983e-06
	1.160550783115252e-02

 559	2.647499999999983e-06
	1.162398682597411e-02

 560	2.652499999999983e-06
	1.164246210146946e-02

 561	2.657499999999983e-06
	1.166093365917568e-02

 562	2.662499999999983e-06
	1.167940150058815e-02

 563	2.667499999999983e-06
	1.169786562724017e-02

 564	2.672499999999982e-06
	1.171632604062668e-02

 565	2.677499999999982e-06
	1.173478274228376e-02

 566	2.682499999999982e-06
	1.175323573370585e-02

 567	2.687499999999982e-06
	1.177168501642198e-02

 568	2.692499999999982e-06
	1.179013059192297e-02

 569	2.697499999999982e-06
	1.180857246174069e-02

 570	2.702499999999982e-06
	1.182701062736886e-02

 571	2.707499999999982e-06
	1.184544509033889e-02

 572	2.712499999999982e-06
	1.186387585214076e-02

 573	2.717499999999982e-06
	1.188230291428899e-02

 574	2.722499999999982e-06
	1.190072627827341e-02

 575	2.727499999999982e-06
	1.191914594563459e-02

 576	2.732499999999982e-06
	1.193756191785535e-02

 577	2.737499999999982e-06
	1.195597419645590e-02

 578	2.742499999999982e-06
	1.197438278291884e-02

 579	2.747499999999982e-06
	1.199278767876748e-02

 580	2.752499999999982e-06
	1.201118888549414e-02

 581	2.757499999999982e-06
	1.202958640461845e-02

 582	2.762499999999982e-06
	1.204798023761574e-02

 583	2.767499999999982e-06
	1.206637038601206e-02

 584	2.772499999999982e-06
	1.208475685128931e-02

 585	2.777499999999981e-06
	1.210313963496321e-02
